Title: * Z:\media\8C5E4AF45E4AD71C\Projekty\Laboratory_Supplier_With_Tft_Lcd_And_Touch_Panel\Analog_Circuit_Simulation_LTSpice\Supplier_V1_0.asc
Date: Wed Dec 29 13:26:07 2010
Plotname: Transient Analysis
Flags: real forward
No. Variables: 59
No. Points:            0
Offset:   0.0000000000000000e+000
Command: Linear Technology Corporation LTspice IV
Backannotation: u2 1 2 3 4 5
Backannotation: u3 1 2 99 50 28
Backannotation: u1 1 2 3 4 5
Variables:
